Created on Sat Dec 14 18:30:02 2024 

        1520 atoms
        1744 bonds
        3040 angles
        4224 dihedrals
        2496 impropers

           5 atom types
          10 bond types
          21 angle types
           5 dihedral types
           1 improper types
           0.000000  36.285400 xlo xhi
           0.000000  36.285400 ylo yhi
           0.000000  35.410000 zlo zhi
           0.000000   0.000000   0.000000 xy xz yz

Masses

    1    63.546000000 # Cu4+2
    2     1.007940000 # H_
    3    12.010700000 # C_R
    4    12.010700000 # C_3
    5    15.999400000 # O_2

Bond Coeffs

    1   harmonic     70.296579        2.668347  # Cu4+2 Cu4+2
    2   harmonic    221.999373        1.859386  # Cu4+2 O_2
    3   harmonic    221.999373        2.123953  # Cu4+2 O_2
    4   harmonic    221.999373        1.932889  # Cu4+2 O_2
    5   harmonic    221.999373        1.927576  # Cu4+2 O_2
    6   harmonic    357.440381        1.081418  # H_ C_R
    7   harmonic    462.655054        1.379256  # C_R C_R
    8   harmonic    391.669513        1.458000  # C_R C_R
    9   harmonic    369.943935        1.486000  # C_R C_3
   10   harmonic    714.557442        1.269010  # C_R O_2

Angle Coeffs

    1                      fourier      190.928832        0.263709       -0.136430        0.254570 # Cu4+2 Cu4+2 O_2
    2                      fourier      149.313146        0.251816       -0.049269        0.250605 # Cu4+2 Cu4+2 O_2
    3                      fourier      155.700328        0.250694       -0.030432        0.250231 # Cu4+2 Cu4+2 O_2
    4                      fourier      201.683185        0.273228       -0.178690        0.257743 # Cu4+2 Cu4+2 O_2
    5                      fourier      264.097421        0.253627       -0.069708        0.251209 # O_2 Cu4+2 O_2
    6                      fourier      307.817072        0.253089       -0.064313        0.251030 # O_2 Cu4+2 O_2
    7                      fourier       68.768034        7.373504        9.985495        2.624501 # O_2 Cu4+2 O_2
    8                      fourier       53.333662       34.289369       45.883101       11.596456 # O_2 Cu4+2 O_2
    9                      fourier      183.478672        0.259132        0.111013        0.253044 # O_2 Cu4+2 O_2
   10                      fourier      259.884289        0.250002       -0.001711        0.250001 # O_2 Cu4+2 O_2
   11              cosine/periodic      222.595017              -1               3 # C_R C_R C_R
   12              cosine/periodic      204.366560              -1               3 # C_R C_R C_R
   13              cosine/periodic      114.578032              -1               3 # H_ C_R C_R
   14              cosine/periodic      198.274298              -1               3 # C_R C_R C_3
   15              cosine/periodic      275.428492              -1               3 # C_R C_R O_2
   16              cosine/periodic      413.556852              -1               3 # O_2 C_R O_2
   17                      fourier      226.550294        0.343737        0.374972        0.281246 # C_R C_3 C_R
   18              cosine/periodic      185.183449              -1               3 # Cu4+2 O_2 C_R
   19              cosine/periodic      171.075090              -1               3 # Cu4+2 O_2 C_R
   20              cosine/periodic      139.997621              -1               3 # Cu4+2 O_2 C_R
   21              cosine/periodic      172.051119              -1               3 # C_R O_2 Cu4+2

Dihedral Coeffs

    1    harmonic     1.497136              -1               2 # C_R C_R C_R H_
    2    harmonic     0.555556              -1               2 # C_R C_R C_R C_R
    3    harmonic     0.083333               1               3 # C_R C_R C_3 C_R
    4    harmonic     2.245703              -1               2 # C_R C_R O_2 Cu4+2
    5    harmonic     0.416667              -1               2 # C_R C_3 C_R C_R

Improper Coeffs

    1    fourier    2.000000        1.000000       -1.000000        0.000000               0 # C_R C_R C_R C_R

Pair Coeffs

    1        0.005000        3.113691 # Cu4+2 Cu4+2
    2        0.044000        2.571134 # H_ H_
    3        0.105000        3.430851 # C_R C_R
    4        0.105000        3.430851 # C_3 C_3
    5        0.060000        3.118146 # O_2 O_2

Atoms

1 444 1 0.928548 9.19907 7.74330 25.20802
2 444 1 0.928559 8.94363 10.39940 25.20802
3 444 1 0.928544 1.32805 18.01498 7.50302
4 444 1 0.928535 16.81465 0.12772 7.50302
5 444 2 0.153482 14.97861 11.02532 19.09307
6 444 2 0.103776 16.66226 11.11422 17.48546
7 444 2 0.114792 16.95072 7.09017 17.55982
8 444 2 0.143778 15.26708 6.99945 19.16743
9 444 2 0.152794 1.76528 11.70386 13.09816
10 444 2 0.115604 1.80338 9.98211 14.66682
11 444 2 0.094265 16.16152 10.87836 15.74329
12 444 2 0.157012 16.12342 12.60011 14.17462
13 444 2 0.132955 11.82541 11.10515 21.83381
14 444 2 0.130097 13.46188 11.03802 20.17662
15 444 2 0.144140 13.94266 7.08291 20.81046
16 444 2 0.106939 12.30619 7.14822 22.46764
17 444 2 0.100642 16.02000 15.24168 10.63008
18 444 2 0.151017 15.99460 13.66508 12.34393
19 444 2 0.140247 1.87958 13.46007 12.21291
20 444 2 0.101598 1.90498 15.03667 10.49906
21 444 2 0.153444 3.16409 7.11738 19.09307
22 444 2 0.103798 1.48044 7.02848 17.48546
23 444 2 0.114812 1.19198 11.05253 17.55982
24 444 2 0.143746 2.87562 11.14325 19.16743
25 444 2 0.152792 16.37742 6.43884 13.09816
26 444 2 0.115610 16.33932 8.16059 14.66682
27 444 2 0.094270 1.98118 7.26434 15.74329
28 444 2 0.157008 2.01928 5.54259 14.17462
29 444 2 0.132958 6.31729 7.03755 21.83381
30 444 2 0.130103 4.68082 7.10468 20.17662
31 444 2 0.144133 4.20004 11.05979 20.81046
32 444 2 0.106939 5.83651 10.99448 22.46764
33 444 2 0.100636 2.12270 2.90102 10.63008
34 444 2 0.151021 2.14810 4.47762 12.34393
35 444 2 0.140234 16.26312 4.68263 12.21291
36 444 2 0.101597 16.23772 3.10603 10.49906
37 444 2 0.153496 16.18873 12.23544 1.38807
38 444 2 0.103752 16.09983 10.55179 35.19046
39 444 2 0.114740 1.98118 10.26333 35.26482
40 444 2 0.143856 2.07190 11.94697 1.46243
41 444 2 0.152786 15.51019 7.30607 30.80316
42 444 2 0.115619 17.23194 7.26797 32.37182
43 444 2 0.094262 16.33569 11.05253 33.44829
44 444 2 0.157011 14.61394 11.09063 31.87962
45 444 2 0.132956 16.10890 15.38864 4.12881
46 444 2 0.130089 16.17603 13.75217 2.47162
47 444 2 0.144105 1.98844 13.27139 3.10546
48 444 2 0.106949 1.92313 14.90786 4.76265
49 444 2 0.100629 11.97237 11.19405 28.33508
50 444 2 0.151037 13.54897 11.21945 30.04893
51 444 2 0.140240 13.75398 7.19177 29.91791
52 444 2 0.101591 12.17738 7.16637 28.20406
53 444 2 0.153498 1.95397 5.90726 1.38807
54 444 2 0.103760 2.04287 7.59091 35.19046
55 444 2 0.114744 16.16152 7.87937 35.26482
56 444 2 0.143851 16.07080 6.19573 1.46243
57 444 2 0.152786 2.63251 10.83663 30.80316
58 444 2 0.115621 0.91076 10.87473 32.37182
59 444 2 0.094257 1.80701 7.09017 33.44829
60 444 2 0.157013 3.52876 7.05207 31.87962
61 444 2 0.132951 2.03380 2.75406 4.12881
62 444 2 0.130091 1.96667 4.39053 2.47162
63 444 2 0.144106 16.15426 4.87131 3.10546
64 444 2 0.106946 16.21957 3.23484 4.76265
65 444 2 0.100637 6.17033 6.94865 28.33508
66 444 2 0.151017 4.59373 6.92325 30.04893
67 444 2 0.140252 4.38872 10.95093 29.91791
68 444 2 0.101592 5.96532 10.97633 28.20406
69 444 3 0.040756 14.96047 9.00422 19.28429
70 444 3 -0.222928 15.37594 10.23067 18.78146
71 444 3 -0.101064 16.38104 10.28510 17.82539
72 444 3 0.214240 16.96887 9.11126 17.36506
73 444 3 -0.167620 16.55159 7.88300 17.86789
74 444 3 -0.186319 15.54829 7.83039 18.82750
75 444 3 0.629407 10.84571 9.24008 23.37768
76 444 3 0.039865 18.01207 12.31889 13.48413
77 444 3 -0.179814 1.00873 11.53876 13.62931
78 444 3 -0.164919 1.03232 10.51007 14.56767
79 444 3 0.226983 18.05743 10.26333 15.35378
80 444 3 -0.079568 16.91807 11.04528 15.20859
81 444 3 -0.251167 16.89448 12.07215 14.27377
82 444 3 -0.069400 11.90887 9.13304 22.31184
83 444 3 -0.075475 12.25358 10.29417 21.62843
84 444 3 -0.196845 13.22966 10.25425 20.63695
85 444 3 0.120380 13.86102 9.05321 20.33242
86 444 3 -0.203796 13.51631 7.89389 21.01583
87 444 3 -0.064307 12.54023 7.93380 22.00377
88 444 3 -0.114866 18.03566 15.29248 10.39992
89 444 3 -0.038849 16.82735 14.88246 10.94877
90 444 3 -0.207910 16.81284 13.94085 11.97212
91 444 3 0.134446 18.00663 13.40927 12.44307
92 444 3 -0.225901 1.07223 13.81929 11.89422
93 444 3 -0.012976 1.08675 14.76090 10.87087
94 444 3 0.671638 18.11004 16.28126 9.29512
95 444 3 0.040549 3.18223 9.13848 19.28429
96 444 3 -0.222769 2.76676 7.91203 18.78146
97 444 3 -0.101189 1.76166 7.85760 17.82539
98 444 3 0.214369 1.17383 9.03144 17.36506
99 444 3 -0.167791 1.59111 10.25970 17.86789
100 444 3 -0.186101 2.59441 10.31231 18.82750
101 444 3 0.629425 7.29699 8.90262 23.37768
102 444 3 0.039870 0.13063 5.82381 13.48413
103 444 3 -0.179798 17.13397 6.60394 13.62931
104 444 3 -0.164940 17.11038 7.63263 14.56767
105 444 3 0.226955 0.08527 7.87937 15.35378
106 444 3 -0.079574 1.22463 7.09742 15.20859
107 444 3 -0.251156 1.24822 6.07055 14.27377
108 444 3 -0.069427 6.23383 9.00966 22.31184
109 444 3 -0.075473 5.88912 7.84853 21.62843
110 444 3 -0.196864 4.91304 7.88845 20.63695
111 444 3 0.120463 4.28168 9.08949 20.33242
112 444 3 -0.203831 4.62639 10.24881 21.01583
113 444 3 -0.064279 5.60247 10.20890 22.00377
114 444 3 -0.114865 0.10704 2.85022 10.39992
115 444 3 -0.038836 1.31535 3.26024 10.94877
116 444 3 -0.207917 1.32986 4.20185 11.97212
117 444 3 0.134429 0.13607 4.73343 12.44307
118 444 3 -0.225876 17.07047 4.32341 11.89422
119 444 3 -0.012983 17.05595 3.38180 10.87087
120 444 3 0.671629 0.03266 1.86144 9.29512
121 444 3 0.040905 0.06713 12.25358 1.57929
122 444 3 -0.223006 16.98338 11.83811 1.07646
123 444 3 -0.100970 16.92895 10.83301 0.12039
124 444 3 0.214142 18.10279 10.24518 35.07006
125 444 3 -0.167434 1.18835 10.66246 0.16289
126 444 3 -0.186541 1.24096 11.66576 1.12250
127 444 3 0.629388 17.97397 16.36834 5.67268
128 444 3 0.039849 14.89516 9.20198 31.18913
129 444 3 -0.179773 15.67529 8.06262 31.33431
130 444 3 -0.164979 16.70398 8.03903 32.27267
131 444 3 0.227009 16.95072 9.15662 33.05878
132 444 3 -0.079568 16.16877 10.29598 32.91359
133 444 3 -0.251156 15.14190 10.31957 31.97877
134 444 3 -0.069383 18.08101 15.30518 4.60684
135 444 3 -0.075490 16.91988 14.96047 3.92343
136 444 3 -0.196815 16.95980 13.98439 2.93195
137 444 3 0.120300 0.01814 13.35303 2.62742
138 444 3 -0.203722 1.17746 13.69774 3.31083
139 444 3 -0.064341 1.13755 14.67382 4.29877
140 444 3 -0.114872 11.92157 9.17839 28.10492
141 444 3 -0.038817 12.33159 10.38670 28.65377
142 444 3 -0.207946 13.27320 10.40121 29.67712
143 444 3 0.134449 13.80478 9.20742 30.14807
144 444 3 -0.225895 13.39476 7.99912 29.59922
145 444 3 -0.012968 12.45315 7.98460 28.57587
146 444 3 0.671628 10.93279 9.10401 27.00012
147 444 3 0.040906 18.07557 5.88912 1.57929
148 444 3 -0.223004 1.15932 6.30459 1.07646
149 444 3 -0.100986 1.21375 7.30969 0.12039
150 444 3 0.214153 0.03991 7.89752 35.07006
151 444 3 -0.167443 16.95435 7.48024 0.16289
152 444 3 -0.186535 16.90174 6.47694 1.12250
153 444 3 0.629387 0.16873 1.77436 5.67268
154 444 3 0.039851 3.24754 8.94072 31.18913
155 444 3 -0.179776 2.46741 10.08008 31.33431
156 444 3 -0.164978 1.43872 10.10367 32.27267
157 444 3 0.227019 1.19198 8.98608 33.05878
158 444 3 -0.079563 1.97393 7.84672 32.91359
159 444 3 -0.251163 3.00080 7.82313 31.97877
160 444 3 -0.069386 0.06169 2.83752 4.60684
161 444 3 -0.075478 1.22282 3.18223 3.92343
162 444 3 -0.196824 1.18290 4.15831 2.93195
163 444 3 0.120297 18.12456 4.78967 2.62742
164 444 3 -0.203721 16.96524 4.44496 3.31083
165 444 3 -0.064337 17.00515 3.46888 4.29877
166 444 3 -0.114867 6.22113 8.96431 28.10492
167 444 3 -0.038840 5.81111 7.75600 28.65377
168 444 3 -0.207913 4.86950 7.74149 29.67712
169 444 3 0.134450 4.33792 8.93528 30.14807
170 444 3 -0.225915 4.74794 10.14358 29.59922
171 444 3 -0.012964 5.68955 10.15810 28.57587
172 444 3 0.671633 7.20991 9.03869 27.00012
173 444 4 -0.396587 0.00000 9.07135 16.34880
174 444 4 -0.396620 0.00000 9.07135 34.05380
175 444 5 -0.536239 10.48285 8.11704 23.91591
176 444 5 -0.563491 1.13210 16.59150 8.79584
177 444 5 -0.577132 10.33590 10.42842 23.60431
178 444 5 -0.610516 17.02511 16.96887 8.90916
179 444 5 -0.536250 7.65985 10.02566 23.91591
180 444 5 -0.563481 17.01060 1.55120 8.79584
181 444 5 -0.577132 7.80680 7.71428 23.60431
182 444 5 -0.610515 1.11759 1.17383 8.90916
183 444 5 -0.536231 0.95431 16.73120 6.21091
184 444 5 -0.563484 10.62255 7.93925 26.50084
185 444 5 -0.577118 16.78563 16.87815 5.89931
186 444 5 -0.610519 10.24518 10.18894 26.61416
187 444 5 -0.536228 17.18839 1.41150 6.21091
188 444 5 -0.563492 7.52015 10.20345 26.50084
189 444 5 -0.577120 1.35707 1.26455 5.89931
190 444 5 -0.610518 7.89752 7.95376 26.61416
191 444 1 0.928541 7.74330 8.94363 10.20198
192 444 1 0.928549 10.39940 9.19907 10.20198
193 444 1 0.928517 18.01498 16.81465 27.90698
194 444 1 0.928531 0.12772 1.32805 27.90698
195 444 2 0.153400 11.02532 3.16409 16.31693
196 444 2 0.103792 11.11422 1.48044 17.92454
197 444 2 0.114769 7.09017 1.19198 17.85018
198 444 2 0.143828 6.99945 2.87562 16.24257
199 444 2 0.152798 11.70386 16.37742 22.31184
200 444 2 0.115606 9.98211 16.33932 20.74318
201 444 2 0.094253 10.87836 1.98118 19.66671
202 444 2 0.157012 12.60011 2.01928 21.23538
203 444 2 0.132910 11.10515 6.31729 13.57619
204 444 2 0.130238 11.03802 4.68082 15.23338
205 444 2 0.144117 7.08291 4.20004 14.59954
206 444 2 0.106938 7.14822 5.83651 12.94235
207 444 2 0.100642 15.24168 2.12270 24.77992
208 444 2 0.151021 13.66508 2.14810 23.06607
209 444 2 0.140236 13.46007 16.26312 23.19709
210 444 2 0.101608 15.03667 16.23772 24.91093
211 444 2 0.153488 7.11738 14.97861 16.31693
212 444 2 0.103777 7.02848 16.66226 17.92454
213 444 2 0.114768 11.05253 16.95072 17.85018
214 444 2 0.143845 11.14325 15.26708 16.24257
215 444 2 0.152800 6.43884 1.76528 22.31184
216 444 2 0.115614 8.16059 1.80338 20.74318
217 444 2 0.094265 7.26434 16.16152 19.66671
218 444 2 0.157005 5.54259 16.12342 21.23538
219 444 2 0.132948 7.03755 11.82541 13.57619
220 444 2 0.130087 7.10468 13.46188 15.23338
221 444 2 0.144107 11.05979 13.94266 14.59954
222 444 2 0.106940 10.99448 12.30619 12.94235
223 444 2 0.100631 2.90102 16.02000 24.77992
224 444 2 0.151021 4.47762 15.99460 23.06607
225 444 2 0.140240 4.68263 1.87958 23.19709
226 444 2 0.101595 3.10603 1.90498 24.91093
227 444 2 0.153404 12.23544 1.95397 34.02193
228 444 2 0.103775 10.55179 2.04287 0.21954
229 444 2 0.114755 10.26333 16.16152 0.14518
230 444 2 0.143823 11.94697 16.07080 33.94757
231 444 2 0.152793 7.30607 2.63251 4.60684
232 444 2 0.115604 7.26797 0.91076 3.03818
233 444 2 0.094236 11.05253 1.80701 1.96171
234 444 2 0.157014 11.09063 3.52876 3.53038
235 444 2 0.132893 15.38864 2.03380 31.28119
236 444 2 0.130250 13.75217 1.96667 32.93838
237 444 2 0.144158 13.27139 16.15426 32.30454
238 444 2 0.106819 14.90786 16.21957 30.64735
239 444 2 0.100634 11.19405 6.17033 7.07492
240 444 2 0.151023 11.21945 4.59373 5.36107
241 444 2 0.140242 7.19177 4.38872 5.49209
242 444 2 0.101597 7.16637 5.96532 7.20593
243 444 2 0.153490 5.90726 16.18873 34.02193
244 444 2 0.103760 7.59091 16.09983 0.21954
245 444 2 0.114750 7.87937 1.98118 0.14518
246 444 2 0.143853 6.19573 2.07190 33.94757
247 444 2 0.152796 10.83663 15.51019 4.60684
248 444 2 0.115612 10.87473 17.23194 3.03818
249 444 2 0.094249 7.09017 16.33569 1.96171
250 444 2 0.157007 7.05207 14.61394 3.53038
251 444 2 0.132948 2.75406 16.10890 31.28119
252 444 2 0.130091 4.39053 16.17603 32.93838
253 444 2 0.144103 4.87131 1.98844 32.30454
254 444 2 0.106943 3.23484 1.92313 30.64735
255 444 2 0.100630 6.94865 11.97237 7.07492
256 444 2 0.151021 6.92325 13.54897 5.36107
257 444 2 0.140245 10.95093 13.75398 5.49209
258 444 2 0.101592 10.97633 12.17738 7.20593
259 444 3 0.040752 9.00422 3.18223 16.12571
260 444 3 -0.222830 10.23067 2.76676 16.62854
261 444 3 -0.101098 10.28510 1.76166 17.58461
262 444 3 0.214245 9.11126 1.17383 18.04494
263 444 3 -0.167526 7.88300 1.59111 17.54211
264 444 3 -0.186445 7.83039 2.59441 16.58250
265 444 3 0.629379 9.24008 7.29699 12.03232
266 444 3 0.039860 12.31889 0.13063 21.92587
267 444 3 -0.179817 11.53876 17.13397 21.78069
268 444 3 -0.164928 10.51007 17.11038 20.84233
269 444 3 0.226991 10.26333 0.08527 20.05622
270 444 3 -0.079531 11.04528 1.22463 20.20140
271 444 3 -0.251179 12.07215 1.24822 21.13623
272 444 3 -0.069432 9.13304 6.23383 13.09816
273 444 3 -0.075343 10.29417 5.88912 13.78157
274 444 3 -0.197090 10.25425 4.91304 14.77305
275 444 3 0.120474 9.05321 4.28168 15.07758
276 444 3 -0.203777 7.89389 4.62639 14.39416
277 444 3 -0.064304 7.93380 5.60247 13.40623
278 444 3 -0.114878 15.29248 0.10704 25.01008
279 444 3 -0.038845 14.88246 1.31535 24.46123
280 444 3 -0.207919 13.94085 1.32986 23.43788
281 444 3 0.134448 13.40927 0.13607 22.96693
282 444 3 -0.225879 13.81929 17.07047 23.51578
283 444 3 -0.012997 14.76090 17.05595 24.53913
284 444 3 0.671689 16.28126 0.03266 26.11487
285 444 3 0.040882 9.13848 14.96047 16.12571
286 444 3 -0.222953 7.91203 15.37594 16.62854
287 444 3 -0.101073 7.85760 16.38104 17.58461
288 444 3 0.214248 9.03144 16.96887 18.04494
289 444 3 -0.167517 10.25970 16.55159 17.54211
290 444 3 -0.186499 10.31231 15.54829 16.58250
291 444 3 0.629381 8.90262 10.84571 12.03232
292 444 3 0.039852 5.82381 18.01207 21.92587
293 444 3 -0.179815 6.60394 1.00873 21.78069
294 444 3 -0.164947 7.63263 1.03232 20.84233
295 444 3 0.227020 7.87937 18.05743 20.05622
296 444 3 -0.079561 7.09742 16.91807 20.20140
297 444 3 -0.251156 6.07055 16.89448 21.13623
298 444 3 -0.069397 9.00966 11.90887 13.09816
299 444 3 -0.075465 7.84853 12.25358 13.78157
300 444 3 -0.196826 7.88845 13.22966 14.77305
301 444 3 0.120306 9.08949 13.86102 15.07758
302 444 3 -0.203725 10.24881 13.51631 14.39416
303 444 3 -0.064330 10.20890 12.54023 13.40623
304 444 3 -0.114918 2.85022 18.03566 25.01008
305 444 3 -0.038822 3.26024 16.82735 24.46123
306 444 3 -0.207923 4.20185 16.81284 23.43788
307 444 3 0.134455 4.73343 18.00663 22.96693
308 444 3 -0.225896 4.32341 1.07223 23.51578
309 444 3 -0.012965 3.38180 1.08675 24.53913
310 444 3 0.671709 1.86144 18.11004 26.11487
311 444 3 0.040766 12.25358 18.07557 33.83071
312 444 3 -0.222855 11.83811 1.15932 34.33354
313 444 3 -0.101037 10.83301 1.21375 35.28961
314 444 3 0.214176 10.24518 0.03991 0.33994
315 444 3 -0.167484 10.66246 16.95435 35.24711
316 444 3 -0.186453 11.66576 16.90174 34.28750
317 444 3 0.629365 16.36834 0.16873 29.73732
318 444 3 0.039854 9.20198 3.24754 4.22087
319 444 3 -0.179804 8.06262 2.46741 4.07569
320 444 3 -0.164932 8.03903 1.43872 3.13733
321 444 3 0.226968 9.15662 1.19198 2.35122
322 444 3 -0.079507 10.29598 1.97393 2.49640
323 444 3 -0.251184 10.31957 3.00080 3.43123
324 444 3 -0.069560 15.30518 0.06169 30.80316
325 444 3 -0.075269 14.96047 1.22282 31.48657
326 444 3 -0.197141 13.98439 1.18290 32.47805
327 444 3 0.120509 13.35303 18.12456 32.78258
328 444 3 -0.203901 13.69774 16.96524 32.09916
329 444 3 -0.064067 14.67382 17.00515 31.11123
330 444 3 -0.114901 9.17839 6.22113 7.30508
331 444 3 -0.038825 10.38670 5.81111 6.75623
332 444 3 -0.207927 10.40121 4.86950 5.73288
333 444 3 0.134455 9.20742 4.33792 5.26193
334 444 3 -0.225895 7.99912 4.74794 5.81078
335 444 3 -0.012974 7.98460 5.68955 6.83413
336 444 3 0.671705 9.10401 7.20991 8.40987
337 444 3 0.040899 5.88912 0.06713 33.83071
338 444 3 -0.222977 6.30459 16.98338 34.33354
339 444 3 -0.101012 7.30969 16.92895 35.28961
340 444 3 0.214184 7.89752 18.10279 0.33994
341 444 3 -0.167467 7.48024 1.18835 35.24711
342 444 3 -0.186524 6.47694 1.24096 34.28750
343 444 3 0.629347 1.77436 17.97397 29.73732
344 444 3 0.039849 8.94072 14.89516 4.22087
345 444 3 -0.179803 10.08008 15.67529 4.07569
346 444 3 -0.164950 10.10367 16.70398 3.13733
347 444 3 0.226990 8.98608 16.95072 2.35122
348 444 3 -0.079536 7.84672 16.16877 2.49640
349 444 3 -0.251161 7.82313 15.14190 3.43123
350 444 3 -0.069373 2.83752 18.08101 30.80316
351 444 3 -0.075474 3.18223 16.91988 31.48657
352 444 3 -0.196824 4.15831 16.95980 32.47805
353 444 3 0.120295 4.78967 0.01814 32.78258
354 444 3 -0.203714 4.44496 1.17746 32.09916
355 444 3 -0.064341 3.46888 1.13755 31.11123
356 444 3 -0.114905 8.96431 11.92157 7.30508
357 444 3 -0.038821 7.75600 12.33159 6.75623
358 444 3 -0.207924 7.74149 13.27320 5.73288
359 444 3 0.134455 8.93528 13.80478 5.26193
360 444 3 -0.225906 10.14358 13.39476 5.81078
361 444 3 -0.012961 10.15810 12.45315 6.83413
362 444 3 0.671699 9.03869 10.93279 8.40987
363 444 4 -0.396700 9.07135 0.00000 19.06120
364 444 4 -0.396625 9.07135 0.00000 1.35620
365 444 5 -0.536235 8.11704 7.65985 11.49409
366 444 5 -0.563502 16.59150 17.01060 26.61416
367 444 5 -0.577127 10.42842 7.80680 11.80569
368 444 5 -0.610519 16.96887 1.11759 26.50084
369 444 5 -0.536240 10.02566 10.48285 11.49409
370 444 5 -0.563498 1.55120 1.13210 26.61416
371 444 5 -0.577126 7.71428 10.33590 11.80569
372 444 5 -0.610506 1.17383 17.02511 26.50084
373 444 5 -0.536177 16.73120 17.18839 29.19909
374 444 5 -0.563504 7.93925 7.52015 8.90916
375 444 5 -0.577107 16.87815 1.35707 29.51069
376 444 5 -0.610524 10.18894 7.89752 8.79584
377 444 5 -0.536229 1.41150 0.95431 29.19909
378 444 5 -0.563504 10.20345 10.62255 8.90916
379 444 5 -0.577117 1.26455 16.78563 29.51069
380 444 5 -0.610515 7.95376 10.24518 8.79584
381 444 1 0.928548 27.34177 7.74330 25.20802
382 444 1 0.928559 27.08633 10.39940 25.20802
383 444 1 0.928544 19.47075 18.01498 7.50302
384 444 1 0.928535 34.95735 0.12772 7.50302
385 444 2 0.153482 33.12131 11.02532 19.09307
386 444 2 0.103776 34.80496 11.11422 17.48546
387 444 2 0.114792 35.09342 7.09017 17.55982
388 444 2 0.143778 33.40978 6.99945 19.16743
389 444 2 0.152794 19.90798 11.70386 13.09816
390 444 2 0.115604 19.94608 9.98211 14.66682
391 444 2 0.094265 34.30422 10.87836 15.74329
392 444 2 0.157012 34.26612 12.60011 14.17462
393 444 2 0.132955 29.96811 11.10515 21.83381
394 444 2 0.130097 31.60458 11.03802 20.17662
395 444 2 0.144140 32.08536 7.08291 20.81046
396 444 2 0.106939 30.44889 7.14822 22.46764
397 444 2 0.100642 34.16270 15.24168 10.63008
398 444 2 0.151017 34.13730 13.66508 12.34393
399 444 2 0.140247 20.02228 13.46007 12.21291
400 444 2 0.101598 20.04768 15.03667 10.49906
401 444 2 0.153444 21.30679 7.11738 19.09307
402 444 2 0.103798 19.62314 7.02848 17.48546
403 444 2 0.114812 19.33468 11.05253 17.55982
404 444 2 0.143746 21.01832 11.14325 19.16743
405 444 2 0.152792 34.52012 6.43884 13.09816
406 444 2 0.115610 34.48202 8.16059 14.66682
407 444 2 0.094270 20.12388 7.26434 15.74329
408 444 2 0.157008 20.16198 5.54259 14.17462
409 444 2 0.132958 24.45999 7.03755 21.83381
410 444 2 0.130103 22.82352 7.10468 20.17662
411 444 2 0.144133 22.34274 11.05979 20.81046
412 444 2 0.106939 23.97921 10.99448 22.46764
413 444 2 0.100636 20.26540 2.90102 10.63008
414 444 2 0.151021 20.29080 4.47762 12.34393
415 444 2 0.140234 34.40582 4.68263 12.21291
416 444 2 0.101597 34.38042 3.10603 10.49906
417 444 2 0.153496 34.33143 12.23544 1.38807
418 444 2 0.103752 34.24253 10.55179 35.19046
419 444 2 0.114740 20.12388 10.26333 35.26482
420 444 2 0.143856 20.21460 11.94697 1.46243
421 444 2 0.152786 33.65289 7.30607 30.80316
422 444 2 0.115619 35.37464 7.26797 32.37182
423 444 2 0.094262 34.47839 11.05253 33.44829
424 444 2 0.157011 32.75664 11.09063 31.87962
425 444 2 0.132956 34.25160 15.38864 4.12881
426 444 2 0.130089 34.31873 13.75217 2.47162
427 444 2 0.144105 20.13114 13.27139 3.10546
428 444 2 0.106949 20.06583 14.90786 4.76265
429 444 2 0.100629 30.11507 11.19405 28.33508
430 444 2 0.151037 31.69167 11.21945 30.04893
431 444 2 0.140240 31.89668 7.19177 29.91791
432 444 2 0.101591 30.32008 7.16637 28.20406
433 444 2 0.153498 20.09667 5.90726 1.38807
434 444 2 0.103760 20.18557 7.59091 35.19046
435 444 2 0.114744 34.30422 7.87937 35.26482
436 444 2 0.143851 34.21350 6.19573 1.46243
437 444 2 0.152786 20.77521 10.83663 30.80316
438 444 2 0.115621 19.05346 10.87473 32.37182
439 444 2 0.094257 19.94971 7.09017 33.44829
440 444 2 0.157013 21.67146 7.05207 31.87962
441 444 2 0.132951 20.17650 2.75406 4.12881
442 444 2 0.130091 20.10937 4.39053 2.47162
443 444 2 0.144106 34.29696 4.87131 3.10546
444 444 2 0.106946 34.36227 3.23484 4.76265
445 444 2 0.100637 24.31303 6.94865 28.33508
446 444 2 0.151017 22.73643 6.92325 30.04893
447 444 2 0.140252 22.53142 10.95093 29.91791
448 444 2 0.101592 24.10802 10.97633 28.20406
449 444 3 0.040756 33.10317 9.00422 19.28429
450 444 3 -0.222928 33.51864 10.23067 18.78146
451 444 3 -0.101064 34.52374 10.28510 17.82539
452 444 3 0.214240 35.11157 9.11126 17.36506
453 444 3 -0.167620 34.69429 7.88300 17.86789
454 444 3 -0.186319 33.69099 7.83039 18.82750
455 444 3 0.629407 28.98841 9.24008 23.37768
456 444 3 0.039865 36.15477 12.31889 13.48413
457 444 3 -0.179814 19.15143 11.53876 13.62931
458 444 3 -0.164919 19.17502 10.51007 14.56767
459 444 3 0.226983 36.20013 10.26333 15.35378
460 444 3 -0.079568 35.06077 11.04528 15.20859
461 444 3 -0.251167 35.03718 12.07215 14.27377
462 444 3 -0.069400 30.05157 9.13304 22.31184
463 444 3 -0.075475 30.39628 10.29417 21.62843
464 444 3 -0.196845 31.37236 10.25425 20.63695
465 444 3 0.120380 32.00372 9.05321 20.33242
466 444 3 -0.203796 31.65901 7.89389 21.01583
467 444 3 -0.064307 30.68293 7.93380 22.00377
468 444 3 -0.114866 36.17836 15.29248 10.39992
469 444 3 -0.038849 34.97005 14.88246 10.94877
470 444 3 -0.207910 34.95554 13.94085 11.97212
471 444 3 0.134446 36.14933 13.40927 12.44307
472 444 3 -0.225901 19.21493 13.81929 11.89422
473 444 3 -0.012976 19.22945 14.76090 10.87087
474 444 3 0.671638 36.25274 16.28126 9.29512
475 444 3 0.040549 21.32493 9.13848 19.28429
476 444 3 -0.222769 20.90946 7.91203 18.78146
477 444 3 -0.101189 19.90436 7.85760 17.82539
478 444 3 0.214369 19.31653 9.03144 17.36506
479 444 3 -0.167791 19.73381 10.25970 17.86789
480 444 3 -0.186101 20.73711 10.31231 18.82750
481 444 3 0.629425 25.43969 8.90262 23.37768
482 444 3 0.039870 18.27333 5.82381 13.48413
483 444 3 -0.179798 35.27667 6.60394 13.62931
484 444 3 -0.164940 35.25308 7.63263 14.56767
485 444 3 0.226955 18.22797 7.87937 15.35378
486 444 3 -0.079574 19.36733 7.09742 15.20859
487 444 3 -0.251156 19.39092 6.07055 14.27377
488 444 3 -0.069427 24.37653 9.00966 22.31184
489 444 3 -0.075473 24.03182 7.84853 21.62843
490 444 3 -0.196864 23.05574 7.88845 20.63695
491 444 3 0.120463 22.42438 9.08949 20.33242
492 444 3 -0.203831 22.76909 10.24881 21.01583
493 444 3 -0.064279 23.74517 10.20890 22.00377
494 444 3 -0.114865 18.24974 2.85022 10.39992
495 444 3 -0.038836 19.45805 3.26024 10.94877
496 444 3 -0.207917 19.47256 4.20185 11.97212
497 444 3 0.134429 18.27877 4.73343 12.44307
498 444 3 -0.225876 35.21317 4.32341 11.89422
499 444 3 -0.012983 35.19865 3.38180 10.87087
500 444 3 0.671629 18.17536 1.86144 9.29512
501 444 3 0.040905 18.20983 12.25358 1.57929
502 444 3 -0.223006 35.12608 11.83811 1.07646
503 444 3 -0.100970 35.07165 10.83301 0.12039
504 444 3 0.214142 36.24549 10.24518 35.07006
505 444 3 -0.167434 19.33105 10.66246 0.16289
506 444 3 -0.186541 19.38366 11.66576 1.12250
507 444 3 0.629388 36.11667 16.36834 5.67268
508 444 3 0.039849 33.03786 9.20198 31.18913
509 444 3 -0.179773 33.81799 8.06262 31.33431
510 444 3 -0.164979 34.84668 8.03903 32.27267
511 444 3 0.227009 35.09342 9.15662 33.05878
512 444 3 -0.079568 34.31147 10.29598 32.91359
513 444 3 -0.251156 33.28460 10.31957 31.97877
514 444 3 -0.069383 36.22371 15.30518 4.60684
515 444 3 -0.075490 35.06258 14.96047 3.92343
516 444 3 -0.196815 35.10250 13.98439 2.93195
517 444 3 0.120300 18.16084 13.35303 2.62742
518 444 3 -0.203722 19.32016 13.69774 3.31083
519 444 3 -0.064341 19.28025 14.67382 4.29877
520 444 3 -0.114872 30.06427 9.17839 28.10492
521 444 3 -0.038817 30.47429 10.38670 28.65377
522 444 3 -0.207946 31.41590 10.40121 29.67712
523 444 3 0.134449 31.94748 9.20742 30.14807
524 444 3 -0.225895 31.53746 7.99912 29.59922
525 444 3 -0.012968 30.59585 7.98460 28.57587
526 444 3 0.671628 29.07549 9.10401 27.00012
527 444 3 0.040906 36.21827 5.88912 1.57929
528 444 3 -0.223004 19.30202 6.30459 1.07646
529 444 3 -0.100986 19.35645 7.30969 0.12039
530 444 3 0.214153 18.18261 7.89752 35.07006
531 444 3 -0.167443 35.09705 7.48024 0.16289
532 444 3 -0.186535 35.04444 6.47694 1.12250
533 444 3 0.629387 18.31143 1.77436 5.67268
534 444 3 0.039851 21.39024 8.94072 31.18913
535 444 3 -0.179776 20.61011 10.08008 31.33431
536 444 3 -0.164978 19.58142 10.10367 32.27267
537 444 3 0.227019 19.33468 8.98608 33.05878
538 444 3 -0.079563 20.11663 7.84672 32.91359
539 444 3 -0.251163 21.14350 7.82313 31.97877
540 444 3 -0.069386 18.20439 2.83752 4.60684
541 444 3 -0.075478 19.36552 3.18223 3.92343
542 444 3 -0.196824 19.32560 4.15831 2.93195
543 444 3 0.120297 36.26726 4.78967 2.62742
544 444 3 -0.203721 35.10794 4.44496 3.31083
545 444 3 -0.064337 35.14785 3.46888 4.29877
546 444 3 -0.114867 24.36383 8.96431 28.10492
547 444 3 -0.038840 23.95381 7.75600 28.65377
548 444 3 -0.207913 23.01220 7.74149 29.67712
549 444 3 0.134450 22.48062 8.93528 30.14807
550 444 3 -0.225915 22.89064 10.14358 29.59922
551 444 3 -0.012964 23.83225 10.15810 28.57587
552 444 3 0.671633 25.35261 9.03869 27.00012
553 444 4 -0.396587 18.14270 9.07135 16.34880
554 444 4 -0.396620 18.14270 9.07135 34.05380
555 444 5 -0.536239 28.62555 8.11704 23.91591
556 444 5 -0.563491 19.27480 16.59150 8.79584
557 444 5 -0.577132 28.47860 10.42842 23.60431
558 444 5 -0.610516 35.16781 16.96887 8.90916
559 444 5 -0.536250 25.80255 10.02566 23.91591
560 444 5 -0.563481 35.15330 1.55120 8.79584
561 444 5 -0.577132 25.94950 7.71428 23.60431
562 444 5 -0.610515 19.26029 1.17383 8.90916
563 444 5 -0.536231 19.09701 16.73120 6.21091
564 444 5 -0.563484 28.76525 7.93925 26.50084
565 444 5 -0.577118 34.92833 16.87815 5.89931
566 444 5 -0.610519 28.38788 10.18894 26.61416
567 444 5 -0.536228 35.33109 1.41150 6.21091
568 444 5 -0.563492 25.66285 10.20345 26.50084
569 444 5 -0.577120 19.49977 1.26455 5.89931
570 444 5 -0.610518 26.04022 7.95376 26.61416